TITLE = "MyDevice"
VARIABLES = "x", "Acceptors", "AtContactNode", "ContactSurfaceArea", "Donors", "ElectronGeneration", "ElectronGeneration:Electrons", "ElectronGeneration:Holes", "Electrons", "Electrons_prev", "HoleGeneration", "HoleGeneration:Electrons", "HoleGeneration:Holes", "Holes", "Holes_prev", "IntrinsicCharge", "IntrinsicCharge:Potential", "IntrinsicElectrons", "IntrinsicElectrons:Potential", "IntrinsicHoles", "IntrinsicHoles:Potential", "NCharge", "NCharge:Electrons", "NetDoping", "NodeVolume", "PCharge", "PCharge:Holes", "Potential", "PotentialIntrinsicCharge", "PotentialIntrinsicCharge:Potential", "PotentialNodeCharge", "PotentialNodeCharge:Electrons", "PotentialNodeCharge:Holes", "Potential_prev", "SurfaceArea", "USRH", "USRH:Electrons", "USRH:Holes", "botnodeelectrons", "botnodeelectrons:Electrons", "botnodeholes", "botnodeholes:Holes", "botnodemodel", "botnodemodel:Potential", "coordinate_index", "node_index", "topnodeelectrons", "topnodeelectrons:Electrons", "topnodeholes", "topnodeholes:Holes", "topnodemodel", "topnodemodel:Potential", "Bern01", "Bern01:Potential@n0", "Bern01:Potential@n1", "EdgeCouple", "EdgeInverseLength", "EdgeLength", "EdgeNodeVolume", "ElectricField", "ElectricField:Potential@n0", "ElectricField:Potential@n1", "ElectronCurrent", "ElectronCurrent:Electrons@n0", "ElectronCurrent:Electrons@n1", "ElectronCurrent:Holes@n0", "ElectronCurrent:Holes@n1", "ElectronCurrent:Potential@n0", "ElectronCurrent:Potential@n1", "Electrons@n0", "Electrons@n1", "HoleCurrent", "HoleCurrent:Electrons@n0", "HoleCurrent:Electrons@n1", "HoleCurrent:Holes@n0", "HoleCurrent:Holes@n1", "HoleCurrent:Potential@n0", "HoleCurrent:Potential@n1", "Holes@n0", "Holes@n1", "Potential@n0", "Potential@n1", "PotentialEdgeFlux", "PotentialEdgeFlux:Potential@n0", "PotentialEdgeFlux:Potential@n1", "contactcharge_edge", "contactcharge_edge:Potential@n0", "contactcharge_edge:Potential@n1", "edge_index", "unitx", "vdiff", "vdiff:Potential@n0", "vdiff:Potential@n1"
ZONE T="MyRegion" NODES=4651, ELEMENTS=4650, DATAPACKING=BLOCK, ZONETYPE=FELINESEG
0 1e-07 1.99802e-07 2.99406e-07 3.98814e-07 4.98024e-07 5.97038e-07 6.95856e-07 7.94478e-07 8.92905e-07 9.91137e-07 1.08917e-06 1.18702e-06 1.28467e-06 1.38212e-06 1.47939e-06 1.57646e-06 1.67334e-06 1.77002e-06 1.86652e-06 1.96282e-06 2.05894e-06 2.15486e-06 2.25059e-06 2.34614e-06 2.44149e-06 2.53666e-06 2.63163e-06 2.72642e-06 2.82102e-06 2.91544e-06 3.00967e-06 3.10371e-06 3.19756e-06 3.29123e-06 3.38471e-06 3.47801e-06 3.57113e-06 3.66405e-06 3.7568e-06 3.84936e-06 3.94174e-06 4.03393e-06 4.12595e-06 4.21778e-06 4.30943e-06 4.40089e-06 4.49218e-06 4.58328e-06 4.67421e-06 4.76495e-06 4.85552e-06 4.9459e-06 5.03611e-06 5.12614e-06 5.21599e-06 5.30566e-06 5.39516e-06 5.48447e-06 5.57361e-06 5.66258e-06 5.75137e-06 5.83998e-06 5.92842e-06 6.01668e-06 6.10476e-06 6.19268e-06 6.28041e-06 6.36798e-06 6.45537e-06 6.54259e-06 6.62963e-06 6.71651e-06 6.80321e-06 6.88974e-06 6.97609e-06 7.06228e-06 7.1483e-06 7.23414e-06 7.31982e-06 7.40533e-06 7.49066e-06 7.57583e-06 7.66083e-06 7.74566e-06 7.83033e-06 7.91482e-06 7.99915e-06 8.08331e-06 8.16731e-06 8.25113e-06 8.3348e-06 8.41829e-06 8.50163e-06 8.58479e-06 8.66779e-06 8.75063e-06 8.8333e-06 8.91581e-06 8.99816e-06 9.08034e-06 9.16236e-06 9.24422e-06 9.32592e-06 9.40745e-06 9.48883e-06 9.57004e-06 9.65109e-06 9.73198e-06 9.81271e-06 9.89328e-06 9.97369e-06 1.00539e-05 1.0134e-05 1.0214e-05 1.02937e-05 1.03734e-05 1.04528e-05 1.05321e-05 1.06113e-05 1.06903e-05 1.07691e-05 1.08478e-05 1.09263e-05 1.10047e-05 1.10829e-05 1.11609e-05 1.12388e-05 1.13166e-05 1.13942e-05 1.14716e-05 1.15489e-05 1.1626e-05 1.1703e-05 1.17798e-05 1.18565e-05 1.1933e-05 1.20094e-05 1.20856e-05 1.21617e-05 1.22376e-05 1.23134e-05 1.2389e-05 1.24645e-05 1.25398e-05 1.2615e-05 1.269e-05 1.27649e-05 1.28396e-05 1.29142e-05 1.29886e-05 1.30629e-05 1.3137e-05 1.3211e-05 1.32848e-05 1.33585e-05 1.34321e-05 1.35055e-05 1.35787e-05 1.36519e-05 1.37248e-05 1.37976e-05 1.38703e-05 1.39429e-05 1.40153e-05 1.40875e-05 1.41596e-05 1.42316e-05 1.43034e-05 1.43751e-05 1.44466e-05 1.4518e-05 1.45893e-05 1.46604e-05 1.47313e-05 1.48022e-05 1.48729e-05 1.49434e-05 1.50138e-05 1.50841e-05 1.51542e-05 1.52242e-05 1.52941e-05 1.53638e-05 1.54334e-05 1.55028e-05 1.55721e-05 1.56413e-05 1.57103e-05 1.57792e-05 1.5848e-05 1.59166e-05 1.59851e-05 1.60534e-05 1.61216e-05 1.61897e-05 1.62577e-05 1.63255e-05 1.63931e-05 1.64607e-05 1.65281e-05 1.65954e-05 1.66625e-05 1.67295e-05 1.67964e-05 1.68631e-05 1.69297e-05 1.69962e-05 1.70626e-05 1.71288e-05 1.71949e-05 1.72608e-05 1.73266e-05 1.73923e-05 1.74579e-05 1.75233e-05 1.75886e-05 1.76538e-05 1.77189e-05 1.77838e-05 1.78486e-05 1.79132e-05 1.79777e-05 1.80422e-05 1.81064e-05 1.81706e-05 1.82346e-05 1.82985e-05 1.83623e-05 1.84259e-05 1.84894e-05 1.85528e-05 1.86161e-05 1.86792e-05 1.87422e-05 1.88051e-05 1.88679e-05 1.89305e-05 1.8993e-05 1.90554e-05 1.91177e-05 1.91798e-05 1.92419e-05 1.93038e-05 1.93655e-05 1.94272e-05 1.94887e-05 1.95501e-05 1.96114e-05 1.96726e-05 1.97337e-05 1.97946e-05 1.98554e-05 1.99161e-05 1.99766e-05 2.00371e-05 2.00974e-05 2.01576e-05 2.02177e-05 2.02777e-05 2.03375e-05 2.03973e-05 2.04569e-05 2.05164e-05 2.05757e-05 2.0635e-05 2.06941e-05 2.07532e-05 2.08121e-05 2.08709e-05 2.09295e-05 2.09881e-05 2.10465e-05 2.11049e-05 2.11631e-05 2.12212e-05 2.12792e-05 2.1337e-05 2.13948e-05 2.14524e-05 2.15099e-05 2.15673e-05 2.16246e-05 2.16818e-05 2.17389e-05 2.17958e-05 2.18527e-05 2.19094e-05 2.1966e-05 2.20225e-05 2.20789e-05 2.21352e-05 2.21914e-05 2.22475e-05 2.23034e-05 2.23592e-05 2.2415e-05 2.24706e-05 2.25261e-05 2.25815e-05 2.26368e-05 2.2692e-05 2.2747e-05 2.2802e-05 2.28568e-05 2.29116e-05 2.29662e-05 2.30207e-05 2.30752e-05 2.31295e-05 2.31837e-05 2.32378e-05 2.32918e-05 2.33456e-05 2.33994e-05 2.34531e-05 2.35066e-05 2.35601e-05 2.36134e-05 2.36667e-05 2.37198e-05 2.37729e-05 2.38258e-05 2.38786e-05 2.39313e-05 2.3984e-05 2.40365e-05 2.40889e-05 2.41412e-05 2.41934e-05 2.42455e-05 2.42975e-05 2.43494e-05 2.44011e-05 2.44528e-05 2.45044e-05 2.45559e-05 2.46073e-05 2.46585e-05 2.47097e-05 2.47608e-05 2.48118e-05 2.48626e-05 2.49134e-05 2.49641e-05 2.50146e-05 2.50651e-05 2.51155e-05 2.51658e-05 2.52159e-05 2.5266e-05 2.5316e-05 2.53658e-05 2.54156e-05 2.54653e-05 2.55149e-05 2.55644e-05 2.56137e-05 2.5663e-05 2.57122e-05 2.57613e-05 2.58103e-05 2.58592e-05 2.5908e-05 2.59567e-05 2.60053e-05 2.60538e-05 2.61022e-05 2.61505e-05 2.61987e-05 2.62469e-05 2.62949e-05 2.63428e-05 2.63907e-05 2.64384e-05 2.64861e-05 2.65336e-05 2.65811e-05 2.66285e-05 2.66757e-05 2.67229e-05 2.677e-05 2.6817e-05 2.68639e-05 2.69107e-05 2.69574e-05 2.7004e-05 2.70506e-05 2.7097e-05 2.71434e-05 2.71896e-05 2.72358e-05 2.72818e-05 2.73278e-05 2.73737e-05 2.74195e-05 2.74652e-05 2.75108e-05 2.75564e-05 2.76018e-05 2.76472e-05 2.76924e-05 2.77376e-05 2.77827e-05 2.78276e-05 2.78725e-05 2.79174e-05 2.79621e-05 2.80067e-05 2.80513e-05 2.80957e-05 2.81401e-05 2.81844e-05 2.82286e-05 2.82727e-05 2.83167e-05 2.83606e-05 2.84045e-05 2.84482e-05 2.84919e-05 2.85355e-05 2.8579e-05 2.86224e-05 2.86657e-05 2.8709e-05 2.87521e-05 2.87952e-05 2.88382e-05 2.88811e-05 2.89239e-05 2.89666e-05 2.90093e-05 2.90518e-05 2.90943e-05 2.91367e-05 2.9179e-05 2.92212e-05 2.92634e-05 2.93054e-05 2.93474e-05 2.93893e-05 2.94311e-05 2.94728e-05 2.95145e-05 2.9556e-05 2.95975e-05 2.96389e-05 2.96802e-05 2.97214e-05 2.97626e-05 2.98037e-05 2.98446e-05 2.98856e-05 2.99264e-05 2.99671e-05 3.00078e-05 3.00484e-05 3.00889e-05 3.01293e-05 3.01696e-05 3.02099e-05 3.02501e-05 3.02902e-05 3.03302e-05 3.03702e-05 3.041e-05 3.04498e-05 3.04895e-05 3.05291e-05 3.05687e-05 3.06082e-05 3.06476e-05 3.06869e-05 3.07261e-05 3.07653e-05 3.08044e-05 3.08434e-05 3.08823e-05 3.09212e-05 3.09599e-05 3.09986e-05 3.10372e-05 3.10758e-05 3.11143e-05 3.11527e-05 3.1191e-05 3.12292e-05 3.12674e-05 3.13055e-05 3.13435e-05 3.13814e-05 3.14193e-05 3.14571e-05 3.14948e-05 3.15324e-05 3.157e-05 3.16075e-05 3.16449e-05 3.16822e-05 3.17195e-05 3.17567e-05 3.17938e-05 3.18309e-05 3.18678e-05 3.19047e-05 3.19416e-05 3.19783e-05 3.2015e-05 3.20516e-05 3.20881e-05 3.21246e-05 3.2161e-05 3.21973e-05 3.22336e-05 3.22697e-05 3.23059e-05 3.23419e-05 3.23778e-05 3.24137e-05 3.24496e-05 3.24853e-05 3.2521e-05 3.25566e-05 3.25921e-05 3.26276e-05 3.2663e-05 3.26983e-05 3.27336e-05 3.27688e-05 3.28039e-05 3.28389e-05 3.28739e-05 3.29088e-05 3.29436e-05 3.29784e-05 3.30131e-05 3.30478e-05 3.30823e-05 3.31168e-05 3.31512e-05 3.31856e-05 3.32199e-05 3.32541e-05 3.32883e-05 3.33224e-05 3.33564e-05 3.33903e-05 3.34242e-05 3.3458e-05 3.34918e-05 3.35255e-05 3.35591e-05 3.35926e-05 3.36261e-05 3.36595e-05 3.36929e-05 3.37262e-05 3.37594e-05 3.37926e-05 3.38256e-05 3.38587e-05 3.38916e-05 3.39245e-05 3.39574e-05 3.39901e-05 3.40228e-05 3.40554e-05 3.4088e-05 3.41205e-05 3.4153e-05 3.41853e-05 3.42176e-05 3.42499e-05 3.42821e-05 3.43142e-05 3.43463e-05 3.43782e-05 3.44102e-05 3.4442e-05 3.44738e-05 3.45056e-05 3.45373e-05 3.45689e-05 3.46004e-05 3.46319e-05 3.46634e-05 3.46947e-05 3.4726e-05 3.47573e-05 3.47884e-05 3.48196e-05 3.48506e-05 3.48816e-05 3.49125e-05 3.49434e-05 3.49742e-05 3.5005e-05 3.50357e-05 3.50663e-05 3.50969e-05 3.51274e-05 3.51578e-05 3.51882e-05 3.52185e-05 3.52488e-05 3.5279e-05 3.53091e-05 3.53392e-05 3.53693e-05 3.53992e-05 3.54291e-05 3.5459e-05 3.54888e-05 3.55185e-05 3.55482e-05 3.55778e-05 3.56073e-05 3.56368e-05 3.56663e-05 3.56957e-05 3.5725e-05 3.57542e-05 3.57834e-05 3.58126e-05 3.58417e-05 3.58707e-05 3.58997e-05 3.59286e-05 3.59575e-05 3.59863e-05 3.6015e-05 3.60437e-05 3.60723e-05 3.61009e-05 3.61294e-05 3.61579e-05 3.61863e-05 3.62146e-05 3.62429e-05 3.62712e-05 3.62994e-05 3.63275e-05 3.63556e-05 3.63836e-05 3.64115e-05 3.64394e-05 3.64673e-05 3.64951e-05 3.65228e-05 3.65505e-05 3.65781e-05 3.66057e-05 3.66332e-05 3.66607e-05 3.66881e-05 3.67154e-05 3.67427e-05 3.677e-05 3.67972e-05 3.68243e-05 3.68514e-05 3.68784e-05 3.69054e-05 3.69324e-05 3.69592e-05 3.6986e-05 3.70128e-05 3.70395e-05 3.70662e-05 3.70928e-05 3.71193e-05 3.71459e-05 3.71723e-05 3.71987e-05 3.7225e-05 3.72513e-05 3.72776e-05 3.73038e-05 3.73299e-05 3.7356e-05 3.7382e-05 3.7408e-05 3.74339e-05 3.74598e-05 3.74856e-05 3.75114e-05 3.75371e-05 3.75628e-05 3.75884e-05 3.7614e-05 3.76395e-05 3.7665e-05 3.76904e-05 3.77158e-05 3.77411e-05 3.77664e-05 3.77916e-05 3.78168e-05 3.78419e-05 3.7867e-05 3.7892e-05 3.7917e-05 3.79419e-05 3.79668e-05 3.79916e-05 3.80164e-05 3.80411e-05 3.80658e-05 3.80904e-05 3.8115e-05 3.81395e-05 3.8164e-05 3.81884e-05 3.82128e-05 3.82372e-05 3.82614e-05 3.82857e-05 3.83099e-05 3.8334e-05 3.83581e-05 3.83822e-05 3.84062e-05 3.84301e-05 3.8454e-05 3.84779e-05 3.85017e-05 3.85255e-05 3.85492e-05 3.85729e-05 3.85965e-05 3.86201e-05 3.86436e-05 3.86671e-05 3.86905e-05 3.87139e-05 3.87372e-05 3.87605e-05 3.87838e-05 3.8807e-05 3.88302e-05 3.88533e-05 3.88763e-05 3.88994e-05 3.89223e-05 3.89453e-05 3.89682e-05 3.8991e-05 3.90138e-05 3.90366e-05 3.90593e-05 3.90819e-05 3.91045e-05 3.91271e-05 3.91496e-05 3.91721e-05 3.91946e-05 3.9217e-05 3.92393e-05 3.92616e-05 3.92839e-05 3.93061e-05 3.93283e-05 3.93504e-05 3.93725e-05 3.93945e-05 3.94165e-05 3.94385e-05 3.94604e-05 3.94822e-05 3.95041e-05 3.95258e-05 3.95476e-05 3.95693e-05 3.95909e-05 3.96125e-05 3.96341e-05 3.96556e-05 3.96771e-05 3.96985e-05 3.97199e-05 3.97413e-05 3.97626e-05 3.97839e-05 3.98051e-05 3.98263e-05 3.98474e-05 3.98685e-05 3.98896e-05 3.99106e-05 3.99316e-05 3.99525e-05 3.99734e-05 3.99942e-05 4.00151e-05 4.00358e-05 4.00566e-05 4.00772e-05 4.00979e-05 4.01185e-05 4.01391e-05 4.01596e-05 4.01801e-05 4.02005e-05 4.02209e-05 4.02413e-05 4.02616e-05 4.02819e-05 4.03021e-05 4.03223e-05 4.03425e-05 4.03626e-05 4.03827e-05 4.04027e-05 4.04227e-05 4.04427e-05 4.04626e-05 4.04825e-05 4.05023e-05 4.05221e-05 4.05419e-05 4.05616e-05 4.05813e-05 4.06009e-05 4.06206e-05 4.06401e-05 4.06597e-05 4.06791e-05 4.06986e-05 4.0718e-05 4.07374e-05 4.07567e-05 4.0776e-05 4.07953e-05 4.08145e-05 4.08337e-05 4.08528e-05 4.0872e-05 4.0891e-05 4.09101e-05 4.09291e-05 4.0948e-05 4.09669e-05 4.09858e-05 4.10047e-05 4.10235e-05 4.10423e-05 4.1061e-05 4.10797e-05 4.10983e-05 4.1117e-05 4.11356e-05 4.11541e-05 4.11726e-05 4.11911e-05 4.12095e-05 4.12279e-05 4.12463e-05 4.12646e-05 4.12829e-05 4.13012e-05 4.13194e-05 4.13376e-05 4.13557e-05 4.13739e-05 4.13919e-05 4.141e-05 4.1428e-05 4.1446e-05 4.14639e-05 4.14818e-05 4.14997e-05 4.15175e-05 4.15353e-05 4.1553e-05 4.15708e-05 4.15885e-05 4.16061e-05 4.16237e-05 4.16413e-05 4.16589e-05 4.16764e-05 4.16938e-05 4.17113e-05 4.17287e-05 4.17461e-05 4.17634e-05 4.17807e-05 4.1798e-05 4.18152e-05 4.18324e-05 4.18496e-05 4.18667e-05 4.18839e-05 4.19009e-05 4.1918e-05 4.1935e-05 4.19519e-05 4.19689e-05 4.19858e-05 4.20026e-05 4.20195e-05 4.20363e-05 4.2053e-05 4.20698e-05 4.20865e-05 4.21031e-05 4.21198e-05 4.21364e-05 4.21529e-05 4.21695e-05 4.2186e-05 4.22024e-05 4.22189e-05 4.22353e-05 4.22516e-05 4.2268e-05 4.22843e-05 4.23006e-05 4.23168e-05 4.2333e-05 4.23492e-05 4.23654e-05 4.23815e-05 4.23975e-05 4.24136e-05 4.24296e-05 4.24456e-05 4.24616e-05 4.24775e-05 4.24934e-05 4.25092e-05 4.25251e-05 4.25409e-05 4.25566e-05 4.25724e-05 4.25881e-05 4.26038e-05 4.26194e-05 4.2635e-05 4.26506e-05 4.26661e-05 4.26817e-05 4.26971e-05 4.27126e-05 4.2728e-05 4.27434e-05 4.27588e-05 4.27741e-05 4.27894e-05 4.28047e-05 4.282e-05 4.28352e-05 4.28504e-05 4.28655e-05 4.28806e-05 4.28957e-05 4.29108e-05 4.29258e-05 4.29408e-05 4.29558e-05 4.29708e-05 4.29857e-05 4.30006e-05 4.30154e-05 4.30302e-05 4.3045e-05 4.30598e-05 4.30746e-05 4.30893e-05 4.31039e-05 4.31186e-05 4.31332e-05 4.31478e-05 4.31624e-05 4.31769e-05 4.31914e-05 4.32059e-05 4.32204e-05 4.32348e-05 4.32492e-05 4.32635e-05 4.32779e-05 4.32922e-05 4.33065e-05 4.33207e-05 4.33349e-05 4.33491e-05 4.33633e-05 4.33774e-05 4.33915e-05 4.34056e-05 4.34197e-05 4.34337e-05 4.34477e-05 4.34617e-05 4.34756e-05 4.34895e-05 4.35034e-05 4.35173e-05 4.35311e-05 4.35449e-05 4.35587e-05 4.35725e-05 4.35862e-05 4.35999e-05 4.36136e-05 4.36272e-05 4.36408e-05 4.36544e-05 4.3668e-05 4.36815e-05 4.3695e-05 4.37085e-05 4.3722e-05 4.37354e-05 4.37488e-05 4.37622e-05 4.37755e-05 4.37888e-05 4.38021e-05 4.38154e-05 4.38286e-05 4.38419e-05 4.38551e-05 4.38682e-05 4.38814e-05 4.38945e-05 4.39076e-05 4.39206e-05 4.39337e-05 4.39467e-05 4.39596e-05 4.39726e-05 4.39855e-05 4.39984e-05 4.40113e-05 4.40242e-05 4.4037e-05 4.40498e-05 4.40626e-05 4.40754e-05 4.40881e-05 4.41008e-05 4.41135e-05 4.41261e-05 4.41387e-05 4.41513e-05 4.41639e-05 4.41765e-05 4.4189e-05 4.42015e-05 4.4214e-05 4.42264e-05 4.42389e-05 4.42513e-05 4.42637e-05 4.4276e-05 4.42884e-05 4.43007e-05 4.43129e-05 4.43252e-05 4.43374e-05 4.43496e-05 4.43618e-05 4.4374e-05 4.43861e-05 4.43982e-05 4.44103e-05 4.44224e-05 4.44344e-05 4.44465e-05 4.44585e-05 4.44704e-05 4.44824e-05 4.44943e-05 4.45062e-05 4.45181e-05 4.45299e-05 4.45418e-05 4.45536e-05 4.45653e-05 4.45771e-05 4.45888e-05 4.46005e-05 4.46122e-05 4.46239e-05 4.46355e-05 4.46472e-05 4.46588e-05 4.46703e-05 4.46819e-05 4.46934e-05 4.47049e-05 4.47164e-05 4.47279e-05 4.47393e-05 4.47507e-05 4.47621e-05 4.47735e-05 4.47848e-05 4.47961e-05 4.48074e-05 4.48187e-05 4.483e-05 4.48412e-05 4.48524e-05 4.48636e-05 4.48748e-05 4.48859e-05 4.48971e-05 4.49082e-05 4.49192e-05 4.49303e-05 4.49413e-05 4.49523e-05 4.49633e-05 4.49743e-05 4.49853e-05 4.49962e-05 4.50071e-05 4.5018e-05 4.50288e-05 4.50397e-05 4.50505e-05 4.50613e-05 4.50721e-05 4.50828e-05 4.50936e-05 4.51043e-05 4.5115e-05 4.51256e-05 4.51363e-05 4.51469e-05 4.51575e-05 4.51681e-05 4.51787e-05 4.51892e-05 4.51997e-05 4.52102e-05 4.52207e-05 4.52312e-05 4.52416e-05 4.52521e-05 4.52625e-05 4.52728e-05 4.52832e-05 4.52935e-05 4.53038e-05 4.53141e-05 4.53244e-05 4.53347e-05 4.53449e-05 4.53551e-05 4.53653e-05 4.53755e-05 4.53856e-05 4.53958e-05 4.54059e-05 4.5416e-05 4.54261e-05 4.54361e-05 4.54462e-05 4.54562e-05 4.54662e-05 4.54761e-05 4.54861e-05 4.5496e-05 4.55059e-05 4.55158e-05 4.55257e-05 4.55356e-05 4.55454e-05 4.55552e-05 4.5565e-05 4.55748e-05 4.55846e-05 4.55943e-05 4.5604e-05 4.56137e-05 4.56234e-05 4.56331e-05 4.56427e-05 4.56524e-05 4.5662e-05 4.56715e-05 4.56811e-05 4.56907e-05 4.57002e-05 4.57097e-05 4.57192e-05 4.57287e-05 4.57381e-05 4.57476e-05 4.5757e-05 4.57664e-05 4.57758e-05 4.57851e-05 4.57945e-05 4.58038e-05 4.58131e-05 4.58224e-05 4.58317e-05 4.58409e-05 4.58501e-05 4.58594e-05 4.58686e-05 4.58777e-05 4.58869e-05 4.5896e-05 4.59052e-05 4.59143e-05 4.59234e-05 4.59324e-05 4.59415e-05 4.59505e-05 4.59595e-05 4.59685e-05 4.59775e-05 4.59865e-05 4.59954e-05 4.60043e-05 4.60133e-05 4.60221e-05 4.6031e-05 4.60399e-05 4.60487e-05 4.60575e-05 4.60663e-05 4.60751e-05 4.60839e-05 4.60926e-05 4.61014e-05 4.61101e-05 4.61188e-05 4.61275e-05 4.61361e-05 4.61448e-05 4.61534e-05 4.6162e-05 4.61706e-05 4.61792e-05 4.61878e-05 4.61963e-05 4.62049e-05 4.62134e-05 4.62219e-05 4.62303e-05 4.62388e-05 4.62473e-05 4.62557e-05 4.62641e-05 4.62725e-05 4.62809e-05 4.62892e-05 4.62976e-05 4.63059e-05 4.63142e-05 4.63225e-05 4.63308e-05 4.63391e-05 4.63473e-05 4.63555e-05 4.63637e-05 4.63719e-05 4.63801e-05 4.63883e-05 4.63964e-05 4.64046e-05 4.64127e-05 4.64208e-05 4.64289e-05 4.64369e-05 4.6445e-05 4.6453e-05 4.64611e-05 4.64691e-05 4.64771e-05 4.6485e-05 4.6493e-05 4.65009e-05 4.65089e-05 4.65168e-05 4.65247e-05 4.65325e-05 4.65404e-05 4.65483e-05 4.65561e-05 4.65639e-05 4.65717e-05 4.65795e-05 4.65873e-05 4.6595e-05 4.66028e-05 4.66105e-05 4.66182e-05 4.66259e-05 4.66336e-05 4.66412e-05 4.66489e-05 4.66565e-05 4.66641e-05 4.66717e-05 4.66793e-05 4.66869e-05 4.66944e-05 4.6702e-05 4.67095e-05 4.6717e-05 4.67245e-05 4.6732e-05 4.67395e-05 4.67469e-05 4.67544e-05 4.67618e-05 4.67692e-05 4.67766e-05 4.6784e-05 4.67914e-05 4.67987e-05 4.6806e-05 4.68134e-05 4.68207e-05 4.6828e-05 4.68352e-05 4.68425e-05 4.68498e-05 4.6857e-05 4.68642e-05 4.68714e-05 4.68786e-05 4.68858e-05 4.6893e-05 4.69001e-05 4.69072e-05 4.69144e-05 4.69215e-05 4.69286e-05 4.69356e-05 4.69427e-05 4.69498e-05 4.69568e-05 4.69638e-05 4.69708e-05 4.69778e-05 4.69848e-05 4.69918e-05 4.69987e-05 4.70057e-05 4.70126e-05 4.70195e-05 4.70264e-05 4.70333e-05 4.70402e-05 4.7047e-05 4.70539e-05 4.70607e-05 4.70675e-05 4.70743e-05 4.70811e-05 4.70879e-05 4.70947e-05 4.71014e-05 4.71082e-05 4.71149e-05 4.71216e-05 4.71283e-05 4.7135e-05 4.71416e-05 4.71483e-05 4.71549e-05 4.71616e-05 4.71682e-05 4.71748e-05 4.71814e-05 4.7188e-05 4.71945e-05 4.72011e-05 4.72076e-05 4.72142e-05 4.72207e-05 4.72272e-05 4.72337e-05 4.72401e-05 4.72466e-05 4.7253e-05 4.72595e-05 4.72659e-05 4.72723e-05 4.72787e-05 4.72851e-05 4.72915e-05 4.72978e-05 4.73042e-05 4.73105e-05 4.73168e-05 4.73232e-05 4.73295e-05 4.73357e-05 4.7342e-05 4.73483e-05 4.73545e-05 4.73608e-05 4.7367e-05 4.73732e-05 4.73794e-05 4.73856e-05 4.73918e-05 4.73979e-05 4.74041e-05 4.74102e-05 4.74163e-05 4.74224e-05 4.74285e-05 4.74346e-05 4.74407e-05 4.74468e-05 4.74528e-05 4.74589e-05 4.74649e-05 4.74709e-05 4.74769e-05 4.74829e-05 4.74889e-05 4.74949e-05 4.75008e-05 4.75068e-05 4.75127e-05 4.75186e-05 4.75245e-05 4.75304e-05 4.75363e-05 4.75422e-05 4.75481e-05 4.75539e-05 4.75598e-05 4.75656e-05 4.75714e-05 4.75772e-05 4.7583e-05 4.75888e-05 4.75946e-05 4.76003e-05 4.76061e-05 4.76118e-05 4.76175e-05 4.76233e-05 4.7629e-05 4.76347e-05 4.76403e-05 4.7646e-05 4.76517e-05 4.76573e-05 4.7663e-05 4.76686e-05 4.76742e-05 4.76798e-05 4.76854e-05 4.7691e-05 4.76965e-05 4.77021e-05 4.77076e-05 4.77132e-05 4.77187e-05 4.77242e-05 4.77297e-05 4.77352e-05 4.77407e-05 4.77462e-05 4.77516e-05 4.77571e-05 4.77625e-05 4.7768e-05 4.77734e-05 4.77788e-05 4.77842e-05 4.77896e-05 4.77949e-05 4.78003e-05 4.78057e-05 4.7811e-05 4.78163e-05 4.78217e-05 4.7827e-05 4.78323e-05 4.78376e-05 4.78428e-05 4.78481e-05 4.78534e-05 4.78586e-05 4.78638e-05 4.78691e-05 4.78743e-05 4.78795e-05 4.78847e-05 4.78899e-05 4.78951e-05 4.79002e-05 4.79054e-05 4.79105e-05 4.79157e-05 4.79208e-05 4.79259e-05 4.7931e-05 4.79361e-05 4.79412e-05 4.79463e-05 4.79513e-05 4.79564e-05 4.79614e-05 4.79665e-05 4.79715e-05 4.79765e-05 4.79815e-05 4.79865e-05 4.79915e-05 4.79965e-05 4.80014e-05 4.80064e-05 4.80113e-05 4.80163e-05 4.80212e-05 4.80261e-05 4.8031e-05 4.80359e-05 4.80408e-05 4.80457e-05 4.80505e-05 4.80554e-05 4.80602e-05 4.80651e-05 4.80699e-05 4.80747e-05 4.80795e-05 4.80843e-05 4.80891e-05 4.80939e-05 4.80987e-05 4.81034e-05 4.81082e-05 4.81129e-05 4.81177e-05 4.81224e-05 4.81271e-05 4.81318e-05 4.81365e-05 4.81412e-05 4.81459e-05 4.81506e-05 4.81552e-05 4.81599e-05 4.81645e-05 4.81691e-05 4.81738e-05 4.81784e-05 4.8183e-05 4.81876e-05 4.81922e-05 4.81967e-05 4.82013e-05 4.82059e-05 4.82104e-05 4.8215e-05 4.82195e-05 4.8224e-05 4.82285e-05 4.8233e-05 4.82375e-05 4.8242e-05 4.82465e-05 4.8251e-05 4.82554e-05 4.82599e-05 4.82643e-05 4.82688e-05 4.82732e-05 4.82776e-05 4.8282e-05 4.82864e-05 4.82908e-05 4.82952e-05 4.82996e-05 4.83039e-05 4.83083e-05 4.83126e-05 4.8317e-05 4.83213e-05 4.83256e-05 4.83299e-05 4.83342e-05 4.83385e-05 4.83428e-05 4.83471e-05 4.83514e-05 4.83556e-05 4.83599e-05 4.83641e-05 4.83684e-05 4.83726e-05 4.83768e-05 4.8381e-05 4.83852e-05 4.83894e-05 4.83936e-05 4.83978e-05 4.8402e-05 4.84061e-05 4.84103e-05 4.84144e-05 4.84186e-05 4.84227e-05 4.84268e-05 4.84309e-05 4.8435e-05 4.84391e-05 4.84432e-05 4.84473e-05 4.84514e-05 4.84554e-05 4.84595e-05 4.84635e-05 4.84676e-05 4.84716e-05 4.84756e-05 4.84797e-05 4.84837e-05 4.84877e-05 4.84917e-05 4.84956e-05 4.84996e-05 4.85036e-05 4.85076e-05 4.85115e-05 4.85155e-05 4.85194e-05 4.85233e-05 4.85272e-05 4.85312e-05 4.85351e-05 4.8539e-05 4.85429e-05 4.85467e-05 4.85506e-05 4.85545e-05 4.85583e-05 4.85622e-05 4.8566e-05 4.85699e-05 4.85737e-05 4.85775e-05 4.85813e-05 4.85851e-05 4.85889e-05 4.85927e-05 4.85965e-05 4.86003e-05 4.86041e-05 4.86078e-05 4.86116e-05 4.86153e-05 4.86191e-05 4.86228e-05 4.86265e-05 4.86302e-05 4.8634e-05 4.86377e-05 4.86414e-05 4.8645e-05 4.86487e-05 4.86524e-05 4.86561e-05 4.86597e-05 4.86634e-05 4.8667e-05 4.86707e-05 4.86743e-05 4.86779e-05 4.86815e-05 4.86851e-05 4.86887e-05 4.86923e-05 4.86959e-05 4.86995e-05 4.87031e-05 4.87066e-05 4.87102e-05 4.87137e-05 4.87173e-05 4.87208e-05 4.87244e-05 4.87279e-05 4.87314e-05 4.87349e-05 4.87384e-05 4.87419e-05 4.87454e-05 4.87489e-05 4.87524e-05 4.87558e-05 4.87593e-05 4.87627e-05 4.87662e-05 4.87696e-05 4.87731e-05 4.87765e-05 4.87799e-05 4.87833e-05 4.87867e-05 4.87901e-05 4.87935e-05 4.87969e-05 4.88003e-05 4.88037e-05 4.8807e-05 4.88104e-05 4.88137e-05 4.88171e-05 4.88204e-05 4.88238e-05 4.88271e-05 4.88304e-05 4.88337e-05 4.8837e-05 4.88403e-05 4.88436e-05 4.88469e-05 4.88502e-05 4.88535e-05 4.88567e-05 4.886e-05 4.88633e-05 4.88665e-05 4.88698e-05 4.8873e-05 4.88762e-05 4.88794e-05 4.88827e-05 4.88859e-05 4.88891e-05 4.88923e-05 4.88955e-05 4.88986e-05 4.89018e-05 4.8905e-05 4.89082e-05 4.89113e-05 4.89145e-05 4.89176e-05 4.89208e-05 4.89239e-05 4.8927e-05 4.89302e-05 4.89333e-05 4.89364e-05 4.89395e-05 4.89426e-05 4.89457e-05 4.89488e-05 4.89518e-05 4.89549e-05 4.8958e-05 4.8961e-05 4.89641e-05 4.89671e-05 4.89702e-05 4.89732e-05 4.89763e-05 4.89793e-05 4.89823e-05 4.89853e-05 4.89883e-05 4.89913e-05 4.89943e-05 4.89973e-05 4.90003e-05 4.90033e-05 4.90062e-05 4.90092e-05 4.90122e-05 4.90151e-05 4.90181e-05 4.9021e-05 4.90239e-05 4.90269e-05 4.90298e-05 4.90327e-05 4.90356e-05 4.90385e-05 4.90414e-05 4.90443e-05 4.90472e-05 4.90501e-05 4.9053e-05 4.90559e-05 4.90587e-05 4.90616e-05 4.90644e-05 4.90673e-05 4.90701e-05 4.9073e-05 4.90758e-05 4.90786e-05 4.90815e-05 4.90843e-05 4.90871e-05 4.90899e-05 4.90927e-05 4.90955e-05 4.90983e-05 4.91011e-05 4.91038e-05 4.91066e-05 4.91094e-05 4.91121e-05 4.91149e-05 4.91177e-05 4.91204e-05 4.91231e-05 4.91259e-05 4.91286e-05 4.91313e-05 4.9134e-05 4.91368e-05 4.91395e-05 4.91422e-05 4.91449e-05 4.91476e-05 4.91502e-05 4.91529e-05 4.91556e-05 4.91583e-05 4.91609e-05 4.91636e-05 4.91662e-05 4.91689e-05 4.91715e-05 4.91742e-05 4.91768e-05 4.91794e-05 4.91821e-05 4.91847e-05 4.91873e-05 4.91899e-05 4.91925e-05 4.91951e-05 4.91977e-05 4.92003e-05 4.92029e-05 4.92054e-05 4.9208e-05 4.92106e-05 4.92131e-05 4.92157e-05 4.92182e-05 4.92208e-05 4.92233e-05 4.92259e-05 4.92284e-05 4.92309e-05 4.92334e-05 4.9236e-05 4.92385e-05 4.9241e-05 4.92435e-05 4.9246e-05 4.92485e-05 4.92509e-05 4.92534e-05 4.92559e-05 4.92584e-05 4.92608e-05 4.92633e-05 4.92658e-05 4.92682e-05 4.92707e-05 4.92731e-05 4.92755e-05 4.9278e-05 4.92804e-05 4.92828e-05 4.92852e-05 4.92876e-05 4.92901e-05 4.92925e-05 4.92949e-05 4.92973e-05 4.92996e-05 4.9302e-05 4.93044e-05 4.93068e-05 4.93092e-05 4.93115e-05 4.93139e-05 4.93162e-05 4.93186e-05 4.93209e-05 4.93233e-05 4.93256e-05 4.9328e-05 4.93303e-05 4.93326e-05 4.93349e-05 4.93372e-05 4.93395e-05 4.93419e-05 4.93442e-05 4.93465e-05 4.93487e-05 4.9351e-05 4.93533e-05 4.93556e-05 4.93579e-05 4.93601e-05 4.93624e-05 4.93647e-05 4.93669e-05 4.93692e-05 4.93714e-05 4.93737e-05 4.93759e-05 4.93781e-05 4.93804e-05 4.93826e-05 4.93848e-05 4.9387e-05 4.93892e-05 4.93914e-05 4.93936e-05 4.93958e-05 4.9398e-05 4.94002e-05 4.94024e-05 4.94046e-05 4.94068e-05 4.94089e-05 4.94111e-05 4.94133e-05 4.94154e-05 4.94176e-05 4.94197e-05 4.94219e-05 4.9424e-05 4.94262e-05 4.94283e-05 4.94304e-05 4.94326e-05 4.94347e-05 4.94368e-05 4.94389e-05 4.9441e-05 4.94431e-05 4.94452e-05 4.94473e-05 4.94494e-05 4.94515e-05 4.94536e-05 4.94557e-05 4.94577e-05 4.94598e-05 4.94619e-05 4.94639e-05 4.9466e-05 4.94681e-05 4.94701e-05 4.94722e-05 4.94742e-05 4.94762e-05 4.94783e-05 4.94803e-05 4.94823e-05 4.94844e-05 4.94864e-05 4.94884e-05 4.94904e-05 4.94924e-05 4.94944e-05 4.94964e-05 4.94984e-05 4.95004e-05 4.95024e-05 4.95044e-05 4.95063e-05 4.95083e-05 4.95103e-05 4.95123e-05 4.95142e-05 4.95162e-05 4.95181e-05 4.95201e-05 4.9522e-05 4.9524e-05 4.95259e-05 4.95279e-05 4.95298e-05 4.95317e-05 4.95337e-05 4.95356e-05 4.95375e-05 4.95394e-05 4.95413e-05 4.95432e-05 4.95451e-05 4.9547e-05 4.95489e-05 4.95508e-05 4.95527e-05 4.95546e-05 4.95565e-05 4.95583e-05 4.95602e-05 4.95621e-05 4.95639e-05 4.95658e-05 4.95677e-05 4.95695e-05 4.95714e-05 4.95732e-05 4.95751e-05 4.95769e-05 4.95787e-05 4.95806e-05 4.95824e-05 4.95842e-05 4.9586e-05 4.95879e-05 4.95897e-05 4.95915e-05 4.95933e-05 4.95951e-05 4.95969e-05 4.95987e-05 4.96005e-05 4.96023e-05 4.96041e-05 4.96058e-05 4.96076e-05 4.96094e-05 4.96112e-05 4.96129e-05 4.96147e-05 4.96165e-05 4.96182e-05 4.962e-05 4.96217e-05 4.96235e-05 4.96252e-05 4.96269e-05 4.96287e-05 4.96304e-05 4.96321e-05 4.96339e-05 4.96356e-05 4.96373e-05 4.9639e-05 4.96407e-05 4.96425e-05 4.96442e-05 4.96459e-05 4.96476e-05 4.96493e-05 4.96509e-05 4.96526e-05 4.96543e-05 4.9656e-05 4.96577e-05 4.96594e-05 4.9661e-05 4.96627e-05 4.96644e-05 4.9666e-05 4.96677e-05 4.96693e-05 4.9671e-05 4.96726e-05 4.96743e-05 4.96759e-05 4.96776e-05 4.96792e-05 4.96808e-05 4.96825e-05 4.96841e-05 4.96857e-05 4.96873e-05 4.9689e-05 4.96906e-05 4.96922e-05 4.96938e-05 4.96954e-05 4.9697e-05 4.96986e-05 4.97002e-05 4.97018e-05 4.97034e-05 4.9705e-05 4.97065e-05 4.97081e-05 4.97097e-05 4.97113e-05 4.97128e-05 4.97144e-05 4.9716e-05 4.97175e-05 4.97191e-05 4.97206e-05 4.97222e-05 4.97237e-05 4.97253e-05 4.97268e-05 4.97284e-05 4.97299e-05 4.97314e-05 4.9733e-05 4.97345e-05 4.9736e-05 4.97375e-05 4.97391e-05 4.97406e-05 4.97421e-05 4.97436e-05 4.97451e-05 4.97466e-05 4.97481e-05 4.97496e-05 4.97511e-05 4.97526e-05 4.97541e-05 4.97556e-05 4.9757e-05 4.97585e-05 4.976e-05 4.97615e-05 4.97629e-05 4.97644e-05 4.97659e-05 4.97673e-05 4.97688e-05 4.97702e-05 4.97717e-05 4.97731e-05 4.97746e-05 4.9776e-05 4.97775e-05 4.97789e-05 4.97804e-05 4.97818e-05 4.97832e-05 4.97846e-05 4.97861e-05 4.97875e-05 4.97889e-05 4.97903e-05 4.97917e-05 4.97931e-05 4.97946e-05 4.9796e-05 4.97974e-05 4.97988e-05 4.98002e-05 4.98016e-05 4.98029e-05 4.98043e-05 4.98057e-05 4.98071e-05 4.98085e-05 4.98099e-05 4.98112e-05 4.98126e-05 4.9814e-05 4.98153e-05 4.98167e-05 4.98181e-05 4.98194e-05 4.98208e-05 4.98221e-05 4.98235e-05 4.98248e-05 4.98262e-05 4.98275e-05 4.98289e-05 4.98302e-05 4.98315e-05 4.98329e-05 4.98342e-05 4.98355e-05 4.98368e-05 4.98382e-05 4.98395e-05 4.98408e-05 4.98421e-05 4.98434e-05 4.98447e-05 4.9846e-05 4.98473e-05 4.98486e-05 4.98499e-05 4.98512e-05 4.98525e-05 4.98538e-05 4.98551e-05 4.98564e-05 4.98577e-05 4.98589e-05 4.98602e-05 4.98615e-05 4.98628e-05 4.9864e-05 4.98653e-05 4.98666e-05 4.98678e-05 4.98691e-05 4.98703e-05 4.98716e-05 4.98729e-05 4.98741e-05 4.98754e-05 4.98766e-05 4.98778e-05 4.98791e-05 4.98803e-05 4.98816e-05 4.98828e-05 4.9884e-05 4.98852e-05 4.98865e-05 4.98877e-05 4.98889e-05 4.98901e-05 4.98913e-05 4.98926e-05 4.98938e-05 4.9895e-05 4.98962e-05 4.98974e-05 4.98986e-05 4.98998e-05 4.9901e-05 4.99022e-05 4.99034e-05 4.99046e-05 4.99057e-05 4.99069e-05 4.99081e-05 4.99093e-05 4.99105e-05 4.99116e-05 4.99128e-05 4.9914e-05 4.99152e-05 4.99163e-05 4.99175e-05 4.99186e-05 4.99198e-05 4.9921e-05 4.99221e-05 4.99233e-05 4.99244e-05 4.99256e-05 4.99267e-05 4.99279e-05 4.9929e-05 4.99301e-05 4.99313e-05 4.99324e-05 4.99335e-05 4.99347e-05 4.99358e-05 4.99369e-05 4.9938e-05 4.99392e-05 4.99403e-05 4.99414e-05 4.99425e-05 4.99436e-05 4.99447e-05 4.99458e-05 4.99469e-05 4.9948e-05 4.99491e-05 4.99502e-05 4.99513e-05 4.99524e-05 4.99535e-05 4.99546e-05 4.99557e-05 4.99568e-05 4.99579e-05 4.9959e-05 4.996e-05 4.99611e-05 4.99622e-05 4.99633e-05 4.99643e-05 4.99654e-05 4.99665e-05 4.99675e-05 4.99686e-05 4.99697e-05 4.99707e-05 4.99718e-05 4.99728e-05 4.99739e-05 4.99749e-05 4.9976e-05 4.9977e-05 4.99781e-05 4.99791e-05 4.99801e-05 4.99812e-05 4.99822e-05 4.99833e-05 4.99843e-05 4.99853e-05 4.99863e-05 4.99874e-05 4.99884e-05 4.99894e-05 4.99904e-05 4.99914e-05 4.99925e-05 4.99935e-05 4.99945e-05 4.99955e-05 4.99965e-05 4.99975e-05 4.99985e-05 4.99995e-05 5e-05 5.0001e-05 5.0002e-05 5.0003e-05 5.0004e-05 5.0005e-05 5.0006e-05 5.0007e-05 5.00081e-05 5.00091e-05 5.00101e-05 5.00111e-05 5.00121e-05 5.00132e-05 5.00142e-05 5.00152e-05 5.00162e-05 5.00173e-05 5.00183e-05 5.00193e-05 5.00204e-05 5.00214e-05 5.00225e-05 5.00235e-0