TITLE = "PowerDiode"
VARIABLES = "x", "Acceptors", "AtContactNode", "ContactSurfaceArea", "Donors", "ElectronGeneration", "ElectronGeneration:Electrons", "ElectronGeneration:Holes", "Electrons", "Electrons_prev", "HoleGeneration", "HoleGeneration:Electrons", "HoleGeneration:Holes", "Holes", "Holes_prev", "IntrinsicCharge", "IntrinsicCharge:Potential", "IntrinsicElectrons", "IntrinsicElectrons:Potential", "IntrinsicHoles", "IntrinsicHoles:Potential", "NCharge", "NCharge:Electrons", "NetDoping", "NodeVolume", "PCharge", "PCharge:Holes", "Potential", "PotentialIntrinsicCharge", "PotentialIntrinsicCharge:Potential", "PotentialNodeCharge", "PotentialNodeCharge:Electrons", "PotentialNodeCharge:Holes", "Potential_prev", "SurfaceArea", "USRH", "USRH:Electrons", "USRH:Holes", "botnodeelectrons", "botnodeelectrons:Electrons", "botnodeholes", "botnodeholes:Holes", "botnodemodel", "botnodemodel:Potential", "coordinate_index", "node_index", "topnodeelectrons", "topnodeelectrons:Electrons", "topnodeholes", "topnodeholes:Holes", "topnodemodel", "topnodemodel:Potential", "Bern01", "Bern01:Potential@n0", "Bern01:Potential@n1", "EdgeCouple", "EdgeInverseLength", "EdgeLength", "EdgeNodeVolume", "ElectricField", "ElectricField:Potential@n0", "ElectricField:Potential@n1", "ElectronCurrent", "ElectronCurrent:Electrons@n0", "ElectronCurrent:Electrons@n1", "ElectronCurrent:Holes@n0", "ElectronCurrent:Holes@n1", "ElectronCurrent:Potential@n0", "ElectronCurrent:Potential@n1", "Electrons@n0", "Electrons@n1", "HoleCurrent", "HoleCurrent:Electrons@n0", "HoleCurrent:Electrons@n1", "HoleCurrent:Holes@n0", "HoleCurrent:Holes@n1", "HoleCurrent:Potential@n0", "HoleCurrent:Potential@n1", "Holes@n0", "Holes@n1", "Potential@n0", "Potential@n1", "PotentialEdgeFlux", "PotentialEdgeFlux:Potential@n0", "PotentialEdgeFlux:Potential@n1", "contactcharge_edge", "contactcharge_edge:Potential@n0", "contactcharge_edge:Potential@n1", "edge_index", "unitx", "vdiff", "vdiff:Potential@n0", "vdiff:Potential@n1"
ZONE T="MyRegion" NODES=4651, ELEMENTS=4650, DATAPACKING=BLOCK, ZONETYPE=FELINESEG
0 1e-07 1.9802e-07 2.94098e-07 3.88274e-07 4.80584e-07 5.71067e-07 6.59758e-07 7.46692e-07 8.31904e-07 9.15429e-07 9.973e-07 1.07755e-06 1.15621e-06 1.23331e-06 1.30889e-06 1.38297e-06 1.45558e-06 1.52675e-06 1.59652e-06 1.6649e-06 1.73193e-06 1.79763e-06 1.86203e-06 1.92515e-06 1.98703e-06 2.04768e-06 2.10712e-06 2.16539e-06 2.22251e-06 2.2785e-06 2.33337e-06 2.38716e-06 2.43989e-06 2.49157e-06 2.54223e-06 2.59188e-06 2.64055e-06 2.68826e-06 2.73502e-06 2.78085e-06 2.82578e-06 2.86982e-06 2.91299e-06 2.9553e-06 2.99677e-06 3.03742e-06 3.07727e-06 3.11633e-06 3.15461e-06 3.19214e-06 3.22892e-06 3.26498e-06 3.30032e-06 3.33496e-06 3.36891e-06 3.40219e-06 3.43482e-06 3.46679e-06 3.49814e-06 3.52886e-06 3.55898e-06 3.58849e-06 3.61743e-06 3.64579e-06 3.67359e-06 3.70084e-06 3.72754e-06 3.75372e-06 3.77939e-06 3.80454e-06 3.82919e-06 3.85336e-06 3.87705e-06 3.90027e-06 3.92303e-06 3.94534e-06 3.9672e-06 3.98864e-06 4.00965e-06 4.03024e-06 4.05042e-06 4.07021e-06 4.0896e-06 4.10861e-06 4.12725e-06 4.14551e-06 4.16341e-06 4.18096e-06 4.19816e-06 4.21502e-06 4.23155e-06 4.24775e-06 4.26362e-06 4.27919e-06 4.29444e-06 4.30939e-06 4.32405e-06 4.33842e-06 4.3525e-06 4.3663e-06 4.37983e-06 4.3931e-06 4.40609e-06 4.41884e-06 4.43133e-06 4.44357e-06 4.45557e-06 4.46733e-06 4.47886e-06 4.49016e-06 4.50124e-06 4.5121e-06 4.52274e-06 4.53317e-06 4.54339e-06 4.55342e-06 4.56324e-06 4.57287e-06 4.58231e-06 4.59156e-06 4.60063e-06 4.60952e-06 4.61823e-06 4.62677e-06 4.63515e-06 4.64335e-06 4.6514e-06 4.65928e-06 4.66701e-06 4.67458e-06 4.68201e-06 4.68928e-06 4.69642e-06 4.70341e-06 4.71026e-06 4.71698e-06 4.72357e-06 4.73002e-06 4.73635e-06 4.74255e-06 4.74863e-06 4.75459e-06 4.76043e-06 4.76615e-06 4.77176e-06 4.77726e-06 4.78266e-06 4.78794e-06 4.79312e-06 4.7982e-06 4.80317e-06 4.80805e-06 4.81283e-06 4.81752e-06 4.82211e-06 4.82662e-06 4.83103e-06 4.83536e-06 4.8396e-06 4.84375e-06 4.84783e-06 4.85182e-06 4.85574e-06 4.85957e-06 4.86334e-06 4.86702e-06 4.87064e-06 4.87418e-06 4.87765e-06 4.88105e-06 4.88439e-06 4.88766e-06 4.89086e-06 4.89401e-06 4.89709e-06 4.9001e-06 4.90306e-06 4.90596e-06 4.9088e-06 4.91159e-06 4.91432e-06 4.917e-06 4.91962e-06 4.92219e-06 4.92472e-06 4.92719e-06 4.92961e-06 4.93198e-06 4.93431e-06 4.93659e-06 4.93883e-06 4.94102e-06 4.94317e-06 4.94527e-06 4.94734e-06 4.94936e-06 4.95134e-06 4.95329e-06 4.95519e-06 4.95706e-06 4.95889e-06 4.96068e-06 4.96244e-06 4.96417e-06 4.96586e-06 4.96751e-06 4.96914e-06 4.97073e-06 4.97229e-06 4.97382e-06 4.97532e-06 4.97679e-06 4.97823e-06 4.97964e-06 4.98102e-06 4.98238e-06 4.98371e-06 4.98501e-06 4.98629e-06 4.98754e-06 4.98876e-06 4.98997e-06 4.99115e-06 4.9923e-06 4.99343e-06 4.99454e-06 4.99563e-06 4.9967e-06 4.99774e-06 4.99877e-06 4.99977e-06 5e-06 5.001e-06 5.002e-06 5.003e-06 5.00401e-06 5.00501e-06 5.00602e-06 5.00702e-06 5.00803e-06 5.00904e-06 5.01005e-06 5.01106e-06 5.01207e-06 5.01308e-06 5.0141e-06 5.01511e-06 5.01613e-06 5.01714e-06 5.01816e-06 5.01918e-06 5.0202e-06 5.02122e-06 5.02224e-06 5.02327e-06 5.02429e-06 5.02532e-06 5.02634e-06 5.02737e-06 5.0284e-06 5.02943e-06 5.03046e-06 5.03149e-06 5.03252e-06 5.03356e-06 5.03459e-06 5.03563e-06 5.03667e-06 5.0377e-06 5.03874e-06 5.03978e-06 5.04082e-06 5.04187e-06 5.04291e-06 5.04396e-06 5.045e-06 5.04605e-06 5.0471e-06 5.04815e-06 5.0492e-06 5.05025e-06 5.0513e-06 5.05235e-06 5.05341e-06 5.05446e-06 5.05552e-06 5.05658e-06 5.05764e-06 5.0587e-06 5.05976e-06 5.06082e-06 5.06188e-06 5.06295e-06 5.06401e-06 5.06508e-06 5.06615e-06 5.06722e-06 5.06829e-06 5.06936e-06 5.07043e-06 5.07151e-06 5.07258e-06 5.07366e-06 5.07473e-06 5.07581e-06 5.07689e-06 5.07797e-06 5.07905e-06 5.08013e-06 5.08122e-06 5.0823e-06 5.08339e-06 5.08447e-06 5.08556e-06 5.08665e-06 5.08774e-06 5.08883e-06 5.08993e-06 5.09102e-06 5.09212e-06 5.09321e-06 5.09431e-06 5.09541e-06 5.09651e-06 5.09761e-06 5.09871e-06 5.09981e-06 5.10092e-06 5.10202e-06 5.10313e-06 5.10424e-06 5.10534e-06 5.10645e-06 5.10757e-06 5.10868e-06 5.10979e-06 5.11091e-06 5.11202e-06 5.11314e-06 5.11426e-06 5.11538e-06 5.1165e-06 5.11762e-06 5.11874e-06 5.11986e-06 5.12099e-06 5.12211e-06 5.12324e-06 5.12437e-06 5.1255e-06 5.12663e-06 5.12776e-06 5.1289e-06 5.13003e-06 5.13117e-06 5.1323e-06 5.13344e-06 5.13458e-06 5.13572e-06 5.13686e-06 5.13801e-06 5.13915e-06 5.1403e-06 5.14144e-06 5.14259e-06 5.14374e-06 5.14489e-06 5.14604e-06 5.14719e-06 5.14834e-06 5.1495e-06 5.15066e-06 5.15181e-06 5.15297e-06 5.15413e-06 5.15529e-06 5.15645e-06 5.15762e-06 5.15878e-06 5.15995e-06 5.16111e-06 5.16228e-06 5.16345e-06 5.16462e-06 5.16579e-06 5.16697e-06 5.16814e-06 5.16932e-06 5.17049e-06 5.17167e-06 5.17285e-06 5.17403e-06 5.17521e-06 5.17639e-06 5.17758e-06 5.17876e-06 5.17995e-06 5.18114e-06 5.18233e-06 5.18352e-06 5.18471e-06 5.1859e-06 5.18709e-06 5.18829e-06 5.18949e-06 5.19068e-06 5.19188e-06 5.19308e-06 5.19428e-06 5.19549e-06 5.19669e-06 5.1979e-06 5.1991e-06 5.20031e-06 5.20152e-06 5.20273e-06 5.20394e-06 5.20515e-06 5.20637e-06 5.20758e-06 5.2088e-06 5.21002e-06 5.21124e-06 5.21246e-06 5.21368e-06 5.2149e-06 5.21613e-06 5.21735e-06 5.21858e-06 5.21981e-06 5.22104e-06 5.22227e-06 5.2235e-06 5.22473e-06 5.22597e-06 5.2272e-06 5.22844e-06 5.22968e-06 5.23092e-06 5.23216e-06 5.2334e-06 5.23464e-06 5.23589e-06 5.23713e-06 5.23838e-06 5.23963e-06 5.24088e-06 5.24213e-06 5.24338e-06 5.24464e-06 5.24589e-06 5.24715e-06 5.24841e-06 5.24967e-06 5.25093e-06 5.25219e-06 5.25345e-06 5.25472e-06 5.25598e-06 5.25725e-06 5.25852e-06 5.25979e-06 5.26106e-06 5.26233e-06 5.2636e-06 5.26488e-06 5.26615e-06 5.26743e-06 5.26871e-06 5.26999e-06 5.27127e-06 5.27256e-06 5.27384e-06 5.27513e-06 5.27641e-06 5.2777e-06 5.27899e-06 5.28028e-06 5.28157e-06 5.28287e-06 5.28416e-06 5.28546e-06 5.28676e-06 5.28806e-06 5.28936e-06 5.29066e-06 5.29196e-06 5.29327e-06 5.29457e-06 5.29588e-06 5.29719e-06 5.2985e-06 5.29981e-06 5.30112e-06 5.30244e-06 5.30375e-06 5.30507e-06 5.30639e-06 5.30771e-06 5.30903e-06 5.31035e-06 5.31167e-06 5.313e-06 5.31433e-06 5.31565e-06 5.31698e-06 5.31831e-06 5.31965e-06 5.32098e-06 5.32231e-06 5.32365e-06 5.32499e-06 5.32633e-06 5.32767e-06 5.32901e-06 5.33035e-06 5.3317e-06 5.33304e-06 5.33439e-06 5.33574e-06 5.33709e-06 5.33844e-06 5.33979e-06 5.34115e-06 5.34251e-06 5.34386e-06 5.34522e-06 5.34658e-06 5.34794e-06 5.34931e-06 5.35067e-06 5.35204e-06 5.3534e-06 5.35477e-06 5.35614e-06 5.35751e-06 5.35889e-06 5.36026e-06 5.36164e-06 5.36301e-06 5.36439e-06 5.36577e-06 5.36715e-06 5.36854e-06 5.36992e-06 5.37131e-06 5.3727e-06 5.37408e-06 5.37547e-06 5.37687e-06 5.37826e-06 5.37965e-06 5.38105e-06 5.38245e-06 5.38385e-06 5.38525e-06 5.38665e-06 5.38805e-06 5.38946e-06 5.39086e-06 5.39227e-06 5.39368e-06 5.39509e-06 5.3965e-06 5.39792e-06 5.39933e-06 5.40075e-06 5.40217e-06 5.40359e-06 5.40501e-06 5.40643e-06 5.40785e-06 5.40928e-06 5.41071e-06 5.41213e-06 5.41356e-06 5.415e-06 5.41643e-06 5.41786e-06 5.4193e-06 5.42074e-06 5.42218e-06 5.42362e-06 5.42506e-06 5.4265e-06 5.42795e-06 5.42939e-06 5.43084e-06 5.43229e-06 5.43374e-06 5.43519e-06 5.43665e-06 5.4381e-06 5.43956e-06 5.44102e-06 5.44248e-06 5.44394e-06 5.4454e-06 5.44687e-06 5.44833e-06 5.4498e-06 5.45127e-06 5.45274e-06 5.45421e-06 5.45569e-06 5.45716e-06 5.45864e-06 5.46012e-06 5.4616e-06 5.46308e-06 5.46456e-06 5.46605e-06 5.46753e-06 5.46902e-06 5.47051e-06 5.472e-06 5.47349e-06 5.47499e-06 5.47648e-06 5.47798e-06 5.47948e-06 5.48098e-06 5.48248e-06 5.48398e-06 5.48549e-06 5.487e-06 5.4885e-06 5.49001e-06 5.49152e-06 5.49304e-06 5.49455e-06 5.49607e-06 5.49759e-06 5.4991e-06 5.50062e-06 5.50215e-06 5.50367e-06 5.5052e-06 5.50672e-06 5.50825e-06 5.50978e-06 5.51131e-06 5.51285e-06 5.51438e-06 5.51592e-06 5.51746e-06 5.519e-06 5.52054e-06 5.52208e-06 5.52363e-06 5.52517e-06 5.52672e-06 5.52827e-06 5.52982e-06 5.53137e-06 5.53293e-06 5.53448e-06 5.53604e-06 5.5376e-06 5.53916e-06 5.54072e-06 5.54229e-06 5.54385e-06 5.54542e-06 5.54699e-06 5.54856e-06 5.55013e-06 5.55171e-06 5.55328e-06 5.55486e-06 5.55644e-06 5.55802e-06 5.5596e-06 5.56118e-06 5.56277e-06 5.56436e-06 5.56595e-06 5.56754e-06 5.56913e-06 5.57072e-06 5.57232e-06 5.57391e-06 5.57551e-06 5.57711e-06 5.57872e-06 5.58032e-06 5.58192e-06 5.58353e-06 5.58514e-06 5.58675e-06 5.58836e-06 5.58998e-06 5.59159e-06 5.59321e-06 5.59483e-06 5.59645e-06 5.59807e-06 5.5997e-06 5.60132e-06 5.60295e-06 5.60458e-06 5.60621e-06 5.60784e-06 5.60947e-06 5.61111e-06 5.61275e-06 5.61439e-06 5.61603e-06 5.61767e-06 5.61931e-06 5.62096e-06 5.62261e-06 5.62426e-06 5.62591e-06 5.62756e-06 5.62922e-06 5.63087e-06 5.63253e-06 5.63419e-06 5.63585e-06 5.63752e-06 5.63918e-06 5.64085e-06 5.64252e-06 5.64419e-06 5.64586e-06 5.64753e-06 5.64921e-06 5.65089e-06 5.65256e-06 5.65425e-06 5.65593e-06 5.65761e-06 5.6593e-06 5.66099e-06 5.66268e-06 5.66437e-06 5.66606e-06 5.66775e-06 5.66945e-06 5.67115e-06 5.67285e-06 5.67455e-06 5.67626e-06 5.67796e-06 5.67967e-06 5.68138e-06 5.68309e-06 5.6848e-06 5.68651e-06 5.68823e-06 5.68995e-06 5.69167e-06 5.69339e-06 5.69511e-06 5.69684e-06 5.69857e-06 5.70029e-06 5.70202e-06 5.70376e-06 5.70549e-06 5.70723e-06 5.70897e-06 5.7107e-06 5.71245e-06 5.71419e-06 5.71593e-06 5.71768e-06 5.71943e-06 5.72118e-06 5.72293e-06 5.72469e-06 5.72644e-06 5.7282e-06 5.72996e-06 5.73172e-06 5.73349e-06 5.73525e-06 5.73702e-06 5.73879e-06 5.74056e-06 5.74233e-06 5.7441e-06 5.74588e-06 5.74766e-06 5.74944e-06 5.75122e-06 5.753e-06 5.75479e-06 5.75658e-06 5.75837e-06 5.76016e-06 5.76195e-06 5.76375e-06 5.76554e-06 5.76734e-06 5.76914e-06 5.77094e-06 5.77275e-06 5.77455e-06 5.77636e-06 5.77817e-06 5.77998e-06 5.7818e-06 5.78361e-06 5.78543e-06 5.78725e-06 5.78907e-06 5.79089e-06 5.79272e-06 5.79455e-06 5.79637e-06 5.79821e-06 5.80004e-06 5.80187e-06 5.80371e-06 5.80555e-06 5.80739e-06 5.80923e-06 5.81107e-06 5.81292e-06 5.81477e-06 5.81662e-06 5.81847e-06 5.82032e-06 5.82218e-06 5.82404e-06 5.8259e-06 5.82776e-06 5.82962e-06 5.83149e-06 5.83336e-06 5.83522e-06 5.8371e-06 5.83897e-06 5.84084e-06 5.84272e-06 5.8446e-06 5.84648e-06 5.84837e-06 5.85025e-06 5.85214e-06 5.85403e-06 5.85592e-06 5.85781e-06 5.8597e-06 5.8616e-06 5.8635e-06 5.8654e-06 5.8673e-06 5.86921e-06 5.87112e-06 5.87302e-06 5.87494e-06 5.87685e-06 5.87876e-06 5.88068e-06 5.8826e-06 5.88452e-06 5.88644e-06 5.88837e-06 5.89029e-06 5.89222e-06 5.89415e-06 5.89609e-06 5.89802e-06 5.89996e-06 5.9019e-06 5.90384e-06 5.90578e-06 5.90772e-06 5.90967e-06 5.91162e-06 5.91357e-06 5.91552e-06 5.91748e-06 5.91944e-06 5.9214e-06 5.92336e-06 5.92532e-06 5.92729e-06 5.92925e-06 5.93122e-06 5.93319e-06 5.93517e-06 5.93714e-06 5.93912e-06 5.9411e-06 5.94308e-06 5.94507e-06 5.94705e-06 5.94904e-06 5.95103e-06 5.95302e-06 5.95502e-06 5.95701e-06 5.95901e-06 5.96101e-06 5.96301e-06 5.96502e-06 5.96702e-06 5.96903e-06 5.97104e-06 5.97306e-06 5.97507e-06 5.97709e-06 5.97911e-06 5.98113e-06 5.98315e-06 5.98518e-06 5.98721e-06 5.98924e-06 5.99127e-06 5.9933e-06 5.99534e-06 5.99738e-06 5.99942e-06 6.00146e-06 6.00351e-06 6.00555e-06 6.0076e-06 6.00965e-06 6.01171e-06 6.01376e-06 6.01582e-06 6.01788e-06 6.01994e-06 6.022e-06 6.02407e-06 6.02614e-06 6.02821e-06 6.03028e-06 6.03236e-06 6.03443e-06 6.03651e-06 6.03859e-06 6.04068e-06 6.04276e-06 6.04485e-06 6.04694e-06 6.04903e-06 6.05113e-06 6.05322e-06 6.05532e-06 6.05742e-06 6.05953e-06 6.06163e-06 6.06374e-06 6.06585e-06 6.06796e-06 6.07008e-06 6.07219e-06 6.07431e-06 6.07643e-06 6.07855e-06 6.08068e-06 6.08281e-06 6.08494e-06 6.08707e-06 6.0892e-06 6.09134e-06 6.09348e-06 6.09562e-06 6.09776e-06 6.09991e-06 6.10205e-06 6.1042e-06 6.10635e-06 6.10851e-06 6.11067e-06 6.11282e-06 6.11498e-06 6.11715e-06 6.11931e-06 6.12148e-06 6.12365e-06 6.12582e-06 6.128e-06 6.13017e-06 6.13235e-06 6.13453e-06 6.13672e-06 6.1389e-06 6.14109e-06 6.14328e-06 6.14547e-06 6.14767e-06 6.14987e-06 6.15207e-06 6.15427e-06 6.15647e-06 6.15868e-06 6.16089e-06 6.1631e-06 6.16531e-06 6.16753e-06 6.16975e-06 6.17197e-06 6.17419e-06 6.17641e-06 6.17864e-06 6.18087e-06 6.1831e-06 6.18534e-06 6.18757e-06 6.18981e-06 6.19205e-06 6.1943e-06 6.19654e-06 6.19879e-06 6.20104e-06 6.20329e-06 6.20555e-06 6.20781e-06 6.21007e-06 6.21233e-06 6.21459e-06 6.21686e-06 6.21913e-06 6.2214e-06 6.22368e-06 6.22595e-06 6.22823e-06 6.23051e-06 6.2328e-06 6.23508e-06 6.23737e-06 6.23966e-06 6.24196e-06 6.24425e-06 6.24655e-06 6.24885e-06 6.25115e-06 6.25346e-06 6.25577e-06 6.25808e-06 6.26039e-06 6.2627e-06 6.26502e-06 6.26734e-06 6.26966e-06 6.27199e-06 6.27431e-06 6.27664e-06 6.27897e-06 6.28131e-06 6.28365e-06 6.28598e-06 6.28833e-06 6.29067e-06 6.29302e-06 6.29537e-06 6.29772e-06 6.30007e-06 6.30243e-06 6.30479e-06 6.30715e-06 6.30951e-06 6.31188e-06 6.31424e-06 6.31662e-06 6.31899e-06 6.32137e-06 6.32374e-06 6.32612e-06 6.32851e-06 6.33089e-06 6.33328e-06 6.33567e-06 6.33807e-06 6.34046e-06 6.34286e-06 6.34526e-06 6.34767e-06 6.35007e-06 6.35248e-06 6.35489e-06 6.3573e-06 6.35972e-06 6.36214e-06 6.36456e-06 6.36698e-06 6.36941e-06 6.37184e-06 6.37427e-06 6.3767e-06 6.37914e-06 6.38158e-06 6.38402e-06 6.38646e-06 6.38891e-06 6.39136e-06 6.39381e-06 6.39626e-06 6.39872e-06 6.40118e-06 6.40364e-06 6.4061e-06 6.40857e-06 6.41104e-06 6.41351e-06 6.41599e-06 6.41846e-06 6.42094e-06 6.42343e-06 6.42591e-06 6.4284e-06 6.43089e-06 6.43338e-06 6.43588e-06 6.43838e-06 6.44088e-06 6.44338e-06 6.44588e-06 6.44839e-06 6.4509e-06 6.45342e-06 6.45593e-06 6.45845e-06 6.46097e-06 6.4635e-06 6.46602e-06 6.46855e-06 6.47109e-06 6.47362e-06 6.47616e-06 6.4787e-06 6.48124e-06 6.48379e-06 6.48633e-06 6.48888e-06 6.49144e-06 6.49399e-06 6.49655e-06 6.49911e-06 6.50168e-06 6.50424e-06 6.50681e-06 6.50938e-06 6.51196e-06 6.51454e-06 6.51712e-06 6.5197e-06 6.52228e-06 6.52487e-06 6.52746e-06 6.53006e-06 6.53265e-06 6.53525e-06 6.53785e-06 6.54046e-06 6.54306e-06 6.54567e-06 6.54829e-06 6.5509e-06 6.55352e-06 6.55614e-06 6.55876e-06 6.56139e-06 6.56402e-06 6.56665e-06 6.56928e-06 6.57192e-06 6.57456e-06 6.5772e-06 6.57985e-06 6.5825e-06 6.58515e-06 6.5878e-06 6.59046e-06 6.59312e-06 6.59578e-06 6.59844e-06 6.60111e-06 6.60378e-06 6.60646e-06 6.60913e-06 6.61181e-06 6.61449e-06 6.61718e-06 6.61986e-06 6.62255e-06 6.62525e-06 6.62794e-06 6.63064e-06 6.63334e-06 6.63604e-06 6.63875e-06 6.64146e-06 6.64417e-06 6.64689e-06 6.64961e-06 6.65233e-06 6.65505e-06 6.65778e-06 6.66051e-06 6.66324e-06 6.66597e-06 6.66871e-06 6.67145e-06 6.6742e-06 6.67694e-06 6.67969e-06 6.68244e-06 6.6852e-06 6.68796e-06 6.69072e-06 6.69348e-06 6.69625e-06 6.69902e-06 6.70179e-06 6.70457e-06 6.70734e-06 6.71013e-06 6.71291e-06 6.7157e-06 6.71849e-06 6.72128e-06 6.72407e-06 6.72687e-06 6.72967e-06 6.73248e-06 6.73529e-06 6.7381e-06 6.74091e-06 6.74373e-06 6.74654e-06 6.74937e-06 6.75219e-06 6.75502e-06 6.75785e-06 6.76068e-06 6.76352e-06 6.76636e-06 6.7692e-06 6.77205e-06 6.7749e-06 6.77775e-06 6.7806e-06 6.78346e-06 6.78632e-06 6.78919e-06 6.79205e-06 6.79492e-06 6.79779e-06 6.80067e-06 6.80355e-06 6.80643e-06 6.80931e-06 6.8122e-06 6.81509e-06 6.81798e-06 6.82088e-06 6.82378e-06 6.82668e-06 6.82959e-06 6.8325e-06 6.83541e-06 6.83832e-06 6.84124e-06 6.84416e-06 6.84709e-06 6.85001e-06 6.85294e-06 6.85588e-06 6.85881e-06 6.86175e-06 6.86469e-06 6.86764e-06 6.87059e-06 6.87354e-06 6.87649e-06 6.87945e-06 6.88241e-06 6.88538e-06 6.88834e-06 6.89131e-06 6.89429e-06 6.89726e-06 6.90024e-06 6.90322e-06 6.90621e-06 6.9092e-06 6.91219e-06 6.91518e-06 6.91818e-06 6.92118e-06 6.92419e-06 6.92719e-06 6.9302e-06 6.93322e-06 6.93623e-06 6.93925e-06 6.94228e-06 6.9453e-06 6.94833e-06 6.95137e-06 6.9544e-06 6.95744e-06 6.96048e-06 6.96353e-06 6.96658e-06 6.96963e-06 6.97268e-06 6.97574e-06 6.9788e-06 6.98187e-06 6.98493e-06 6.988e-06 6.99108e-06 6.99415e-06 6.99723e-06 7.00032e-06 7.0034e-06 7.00649e-06 7.00959e-06 7.01268e-06 7.01578e-06 7.01889e-06 7.02199e-06 7.0251e-06 7.02821e-06 7.03133e-06 7.03445e-06 7.03757e-06 7.0407e-06 7.04383e-06 7.04696e-06 7.05009e-06 7.05323e-06 7.05637e-06 7.05952e-06 7.06267e-06 7.06582e-06 7.06898e-06 7.07213e-06 7.0753e-06 7.07846e-06 7.08163e-06 7.0848e-06 7.08797e-06 7.09115e-06 7.09433e-06 7.09752e-06 7.10071e-06 7.1039e-06 7.10709e-06 7.11029e-06 7.11349e-06 7.1167e-06 7.11991e-06 7.12312e-06 7.12633e-06 7.12955e-06 7.13277e-06 7.136e-06 7.13923e-06 7.14246e-06 7.14569e-06 7.14893e-06 7.15217e-06 7.15542e-06 7.15867e-06 7.16192e-06 7.16517e-06 7.16843e-06 7.17169e-06 7.17496e-06 7.17823e-06 7.1815e-06 7.18478e-06 7.18806e-06 7.19134e-06 7.19462e-06 7.19791e-06 7.20121e-06 7.2045e-06 7.2078e-06 7.21111e-06 7.21441e-06 7.21772e-06 7.22104e-06 7.22435e-06 7.22767e-06 7.231e-06 7.23433e-06 7.23766e-06 7.24099e-06 7.24433e-06 7.24767e-06 7.25101e-06 7.25436e-06 7.25771e-06 7.26107e-06 7.26443e-06 7.26779e-06 7.27116e-06 7.27453e-06 7.2779e-06 7.28127e-06 7.28465e-06 7.28804e-06 7.29142e-06 7.29482e-06 7.29821e-06 7.30161e-06 7.30501e-06 7.30841e-06 7.31182e-06 7.31523e-06 7.31865e-06 7.32207e-06 7.32549e-06 7.32891e-06 7.33234e-06 7.33578e-06 7.33921e-06 7.34265e-06 7.3461e-06 7.34955e-06 7.353e-06 7.35645e-06 7.35991e-06 7.36337e-06 7.36684e-06 7.37031e-06 7.37378e-06 7.37725e-06 7.38073e-06 7.38422e-06 7.38771e-06 7.3912e-06 7.39469e-06 7.39819e-06 7.40169e-06 7.4052e-06 7.40871e-06 7.41222e-06 7.41573e-06 7.41925e-06 7.42278e-06 7.42631e-06 7.42984e-06 7.43337e-06 7.43691e-06 7.44045e-06 7.444e-06 7.44755e-06 7.4511e-06 7.45466e-06 7.45822e-06 7.46178e-06 7.46535e-06 7.46892e-06 7.4725e-06 7.47608e-06 7.47966e-06 7.48325e-06 7.48684e-06 7.49043e-06 7.49403e-06 7.49763e-06 7.50124e-06 7.50485e-06 7.50846e-06 7.51208e-06 7.5157e-06 7.51932e-06 7.52295e-06 7.52658e-06 7.53022e-06 7.53386e-06 7.5375e-06 7.54115e-06 7.5448e-06 7.54845e-06 7.55211e-06 7.55578e-06 7.55944e-06 7.56311e-06 7.56679e-06 7.57046e-06 7.57414e-06 7.57783e-06 7.58152e-06 7.58521e-06 7.58891e-06 7.59261e-06 7.59631e-06 7.60002e-06 7.60374e-06 7.60745e-06 7.61117e-06 7.6149e-06 7.61862e-06 7.62236e-06 7.62609e-06 7.62983e-06 7.63357e-06 7.63732e-06 7.64107e-06 7.64483e-06 7.64859e-06 7.65235e-06 7.65612e-06 7.65989e-06 7.66366e-06 7.66744e-06 7.67122e-06 7.67501e-06 7.6788e-06 7.6826e-06 7.68639e-06 7.6902e-06 7.694e-06 7.69781e-06 7.70163e-06 7.70545e-06 7.70927e-06 7.71309e-06 7.71692e-06 7.72076e-06 7.7246e-06 7.72844e-06 7.73229e-06 7.73614e-06 7.73999e-06 7.74385e-06 7.74771e-06 7.75158e-06 7.75545e-06 7.75932e-06 7.7632e-06 7.76708e-06 7.77097e-06 7.77486e-06 7.77876e-06 7.78265e-06 7.78656e-06 7.79046e-06 7.79438e-06 7.79829e-06 7.80221e-06 7.80613e-06 7.81006e-06 7.81399e-06 7.81793e-06 7.82187e-06 7.82581e-06 7.82976e-06 7.83371e-06 7.83767e-06 7.84163e-06 7.84559e-06 7.84956e-06 7.85353e-06 7.85751e-06 7.86149e-06 7.86548e-06 7.86947e-06 7.87346e-06 7.87746e-06 7.88146e-06 7.88546e-06 7.88947e-06 7.89349e-06 7.89751e-06 7.90153e-06 7.90556e-06 7.90959e-06 7.91362e-06 7.91766e-06 7.92171e-06 7.92575e-06 7.92981e-06 7.93386e-06 7.93792e-06 7.94199e-06 7.94606e-06 7.95013e-06 7.95421e-06 7.95829e-06 7.96238e-06 7.96647e-06 7.97056e-06 7.97466e-06 7.97876e-06 7.98287e-06 7.98698e-06 7.9911e-06 7.99522e-06 7.99934e-06 8.00347e-06 8.00761e-06 8.01174e-06 8.01588e-06 8.02003e-06 8.02418e-06 8.02834e-06 8.0325e-06 8.03666e-06 8.04083e-06 8.045e-06 8.04918e-06 8.05336e-06 8.05754e-06 8.06173e-06 8.06593e-06 8.07012e-06 8.07433e-06 8.07853e-06 8.08275e-06 8.08696e-06 8.09118e-06 8.09541e-06 8.09964e-06 8.10387e-06 8.10811e-06 8.11235e-06 8.1166e-06 8.12085e-06 8.1251e-06 8.12936e-06 8.13363e-06 8.1379e-06 8.14217e-06 8.14645e-06 8.15073e-06 8.15502e-06 8.15931e-06 8.1636e-06 8.1679e-06 8.17221e-06 8.17652e-06 8.18083e-06 8.18515e-06 8.18947e-06 8.1938e-06 8.19813e-06 8.20247e-06 8.20681e-06 8.21116e-06 8.2155e-06 8.21986e-06 8.22422e-06 8.22858e-06 8.23295e-06 8.23732e-06 8.2417e-06 8.24608e-06 8.25047e-06 8.25486e-06 8.25925e-06 8.26365e-06 8.26806e-06 8.27247e-06 8.27688e-06 8.2813e-06 8.28572e-06 8.29015e-06 8.29458e-06 8.29902e-06 8.30346e-06 8.30791e-06 8.31236e-06 8.31681e-06 8.32127e-06 8.32574e-06 8.33021e-06 8.33468e-06 8.33916e-06 8.34365e-06 8.34813e-06 8.35263e-06 8.35712e-06 8.36163e-06 8.36613e-06 8.37064e-06 8.37516e-06 8.37968e-06 8.38421e-06 8.38874e-06 8.39327e-06 8.39781e-06 8.40236e-06 8.40691e-06 8.41146e-06 8.41602e-06 8.42058e-06 8.42515e-06 8.42972e-06 8.4343e-06 8.43888e-06 8.44347e-06 8.44806e-06 8.45266e-06 8.45726e-06 8.46187e-06 8.46648e-06 8.4711e-06 8.47572e-06 8.48034e-06 8.48498e-06 8.48961e-06 8.49425e-06 8.4989e-06 8.50355e-06 8.5082e-06 8.51286e-06 8.51753e-06 8.5222e-06 8.52687e-06 8.53155e-06 8.53623e-06 8.54092e-06 8.54562e-06 8.55031e-06 8.55502e-06 8.55973e-06 8.56444e-06 8.56916e-06 8.57388e-06 8.57861e-06 8.58334e-06 8.58808e-06 8.59283e-06 8.59757e-06 8.60233e-06 8.60708e-06 8.61185e-06 8.61662e-06 8.62139e-06 8.62617e-06 8.63095e-06 8.63574e-06 8.64053e-06 8.64533e-06 8.65013e-06 8.65494e-06 8.65975e-06 8.66457e-06 8.66939e-06 8.67422e-06 8.67905e-06 8.68389e-06 8.68873e-06 8.69358e-06 8.69843e-06 8.70329e-06 8.70816e-06 8.71302e-06 8.7179e-06 8.72278e-06 8.72766e-06 8.73255e-06 8.73744e-06 8.74234e-06 8.74725e-06 8.75215e-06 8.75707e-06 8.76199e-06 8.76691e-06 8.77184e-06 8.77678e-06 8.78172e-06 8.78666e-06 8.79161e-06 8.79657e-06 8.80153e-06 8.80649e-06 8.81147e-06 8.81644e-06 8.82142e-06 8.82641e-06 8.8314e-06 8.8364e-06 8.8414e-06 8.84641e-06 8.85142e-06 8.85644e-06 8.86146e-06 8.86649e-06 8.87152e-06 8.87656e-06 8.88161e-06 8.88665e-06 8.89171e-06 8.89677e-06 8.90183e-06 8.9069e-06 8.91198e-06 8.91706e-06 8.92215e-06 8.92724e-06 8.93234e-06 8.93744e-06 8.94255e-06 8.94766e-06 8.95278e-06 8.9579e-06 8.96303e-06 8.96816e-06 8.9733e-06 8.97845e-06 8.9836e-06 8.98875e-06 8.99392e-06 8.99908e-06 9.00425e-06 9.00943e-06 9.01461e-06 9.0198e-06 9.025e-06 9.03019e-06 9.0354e-06 9.04061e-06 9.04582e-06 9.05104e-06 9.05627e-06 9.0615e-06 9.06674e-06 9.07198e-06 9.07723e-06 9.08248e-06 9.08774e-06 9.09301e-06 9.09828e-06 9.10355e-06 9.10883e-06 9.11412e-06 9.11941e-06 9.12471e-06 9.13001e-06 9.13532e-06 9.14063e-06 9.14595e-06 9.15128e-06 9.15661e-06 9.16194e-06 9.16729e-06 9.17263e-06 9.17799e-06 9.18334e-06 9.18871e-06 9.19408e-06 9.19945e-06 9.20483e-06 9.21022e-06 9.21561e-06 9.22101e-06 9.22641e-06 9.23182e-06 9.23724e-06 9.24266e-06 9.24808e-06 9.25352e-06 9.25895e-06 9.2644e-06 9.26984e-06 9.2753e-06 9.28076e-06 9.28622e-06 9.2917e-06 9.29717e-06 9.30266e-06 9.30814e-06 9.31364e-06 9.31914e-06 9.32464e-06 9.33016e-06 9.33567e-06 9.3412e-06 9.34672e-06 9.35226e-06 9.3578e-06 9.36335e-06 9.3689e-06 9.37445e-06 9.38002e-06 9.38559e-06 9.39116e-06 9.39674e-06 9.40233e-06 9.40792e-06 9.41352e-06 9.41913e-06 9.42474e-06 9.43035e-06 9.43597e-06 9.4416e-06 9.44723e-06 9.45287e-06 9.45852e-06 9.46417e-06 9.46983e-06 9.47549e-06 9.48116e-06 9.48683e-06 9.49251e-06 9.4982e-06 9.50389e-06 9.50959e-06 9.5153e-06 9.52101e-06 9.52672e-06 9.53245e-06 9.53817e-06 9.54391e-06 9.54965e-06 9.55539e-06 9.56115e-06 9.5669e-06 9.57267e-06 9.57844e-06 9.58422e-06 9.59e-06 9.59579e-06 9.60158e-06 9.60738e-06 9.61319e-06 9.619e-06 9.62482e-06 9.63064e-06 9.63647e-06 9.64231e-06 9.64815e-06 9.654e-06 9.65986e-06 9.66572e-06 9.67159e-06 9.67746e-06 9.68334e-06 9.68922e-06 9.69512e-06 9.70101e-06 9.70692e-06 9.71283e-06 9.71874e-06 9.72467e-06 9.7306e-06 9.73653e-06 9.74247e-06 9.74842e-06 9.75437e-06 9.76033e-06 9.7663e-06 9.77227e-06 9.77825e-06 9.78423e-06 9.79023e-06 9.79622e-06 9.80223e-06 9.80824e-06 9.81425e-06 9.82027e-06 9.8263e-06 9.83234e-06 9.83838e-06 9.84443e-06 9.85048e-06 9.85654e-06 9.86261e-06 9.86868e-06 9.87476e-06 9.88084e-06 9.88693e-06 9.89303e-06 9.89914e-06 9.90525e-06 9.91137e-06 9.91749e-06 9.92362e-06 9.92975e-06 9.9359e-06 9.94205e-06 9.9482e-06 9.95436e-06 9.96053e-06 9.96671e-06 9.97289e-06 9.97908e-06 9.98527e-06 9.99147e-06 9.99768e-06 1.00039e-05 1.00101e-05 1.00163e-05 1.00226e-05 1.00288e-05 1.00351e-05 1.00413e-05 1.00476e-05 1.00538e-05 1.00601e-05 1.00664e-05 1.00727e-05 1.0079e-05 1.00853e-05 1.00916e-05 1.00979e-05 1.01042e-05 1.01105e-05 1.01169e-05 1.01232e-05 1.01295e-05 1.01359e-05 1.01422e-05 1.01486e-05 1.0155e-05 1.01614e-05 1.01677e-05 1.01741e-05 1.01805e-05 1.01869e-05 1.01933e-05 1.01998e-05 1.02062e-05 1.02126e-05 1.02191e-05 1.02255e-05 1.0232e-05 1.02384e-05 1.02449e-05 1.02513e-05 1.02578e-05 1.02643e-05 1.02708e-05 1.02773e-05 1.02838e-05 1.02903e-05 1.02968e-05 1.03034e-05 1.03099e-05 1.03164e-05 1.0323e-05 1.03295e-05 1.03361e-05 1.03427e-05 1.03492e-05 1.03558e-05 1.03624e-05 1.0369e-05 1.03756e-05 1.03822e-05 1.03888e-05 1.03954e-05 1.04021e-05 1.04087e-05 1.04153e-05 1.0422e-05 1.04287e-05 1.04353e-05 1.0442e-05 1.04487e-05 1.04553e-05 1.0462e-05 1.04687e-05 1.04754e-05 1.04822e-05 1.04889e-05 1.04956e-05 1.05023e-05 1.05091e-05 1.05158e-05 1.05226e-05 1.05293e-05 1.05361e-05 1.05429e-05 1.05497e-05 1.05564e-05 1.05632e-05 1.057e-05 1.05769e-05 1.05837e-05 1.05905e-05 1.05973e-05 1.06042e-05 1.0611e-05 1.06179e-05 1.06247e-05 1.06316e-05 1.06385e-05 1.06454e-05 1.06522e-05 1.06591e-05 1.0666e-05 1.0673e-05 1.06799e-05 1.06868e-05 1.06937e-05 1.07007e-05 1.07076e-05 1.07146e-05 1.07215e-05 1.07285e-05 1.07355e-05 1.07425e-05 1.07495e-05 1.07565e-05 1.07635e-05 1.07705e-05 1.07775e-05 1.07845e-05 1.07916e-05 1.07986e-05 1.08056e-05 1.08127e-05 1.08198e-05 1.08268e-05 1.08339e-05 1.0841e-05 1.08481e-05 1.08552e-05 1.08623e-05 1.08694e-05 1.08765e-05 1.08837e-05 1.08908e-05 1.0898e-05 1.09051e-05 1.09123e-05 1.09194e-05 1.09266e-05 1.09338e-05 1.0941e-05 1.09482e-05 1.09554e-05 1.09626e-05 1.09698e-05 1.0977e-05 1.09843e-05 1.09915e-05 1.09988e-05 1.1006e-05 1.10133e-05 1.10206e-05 1.10278e-05 1.10351e-05 1.10424e-05 1.10497e-05 1.1057e-05 1.10644e-05 1.10717e-05 1.1079e-05 1.10864e-05 1.10937e-05 1.11011e-05 1.11084e-05 1.11158e-05 1.11232e-05 1.11306e-05 1.1138e-05 1.11454e-05 1.11528e-05 1.11602e-05 1.11676e-05 1.11751e-05 1.11825e-05 1.119e-05 1.11974e-05 1.12049e-05 1.12124e-05 1.12198e-05 1.12273e-05 1.12348e-05 1.12423e-05 1.12498e-05 1.12574e-05 1.12649e-05 1.12724e-05 1.128e-05 1.12875e-05 1.12951e-05 1.13026e-05 1.13102e-05 1.13178e-05 1.13254e-05 1.1333e-05 1.13406e-05 1.13482e-05 1.13558e-05 1.13635e-05 1.13711e-05 1.13787e-05 1.13864e-05 1.13941e-05 1.14017e-05 1.14094e-05 1.14171e-05 1.14248e-05 1.14325e-05 1.14402e-05 1.14479e-05 1.14557e-05 1.14634e-05 1.14711e-05 1.14789e-05 1.14866e-05 1.14944e-05 1.15022e-05 1.151e-05 1.15178e-05 1.15256e-05 1.15334e-05 1.15412e-05 1.1549e-05 1.15568e-05 1.15647e-05 1.15725e-05 1.15804e-05 1.15882e-05 1.15961e-05 1.1604e-05 1.16119e-05 1.16198e-05 1.16277e-05 1.16356e-05 1.16435e-05 1.16515e-05 1.16594e-05 1.16673e-05 1.16753e-05 1.16833e-05 1.16912e-05 1.16992e-05 1.17072e-05 1.17152e-05 1.17232e-05 1.17312e-05 1.17392e-05 1.17473e-05 1.17553e-05 1.17634e-05 1.17714e-05 1.17795e-05 1.17875e-05 1.17956e-05 1.18037e-05 1.18118e-05 1.18199e-05 1.1828e-05 1.18362e-05 1.18443e-05 1.18524e-05 1.18606e-05 1.18687e-05 1.18769e-05 1.18851e-05 1.18933e-05 1.19014e-05 1.19096e-05 1.19179e-05 1.19261e-05 1.19343e-05 1.19425e-05 1.19508e-05 1.1959e-05 1.19673e-05 1.19756e-05 1.19838e-05 1.19921e-05 1.20004e-05 1.20087e-05 1.2017e-05 1.20253e-05 1.20337e-05 1.2042e-05 1.20504e-05 1.20587e-05 1.20671e-05 1.20754e-05 1.20838e-05 1.20922e-05 1.21006e-05 1.2109e-05 1.21174e-05 1.21259e-05 1.21343e-05 1.21427e-05 1.21512e-05 1.21597e-05 1.21681e-05 1.21766e-05 1.21851e-05 1.21936e-05 1.22021e-05 1.22106e-05 1.22191e-05 1.22277e-05 1.22362e-05 1.22447e-05 1.22533e-05 1.22619e-05 1.22704e-05 1.2279e-05 1.22876e-05 1.22962e-05 1.23048e-05 1.23135e-05 1.23221e-05 1.23307e-05 1.23394e-05 1.2348e-05 1.23567e-05 1.23654e-05 1.23741e-05 1.23827e-05 1.23914e-05 1.24002e-05 1.24089e-05 1.24176e-05 1.24263e-05 1.24351e-05 1.24438e-05 1.24526e-05 1.24614e-05 1.24702e-05 1.2479e-05 1.24878e-05 1.24966e-05 1.25054e-05 1.25142e-05 1.25231e-05 1.25319e-05 1.25408e-05 1.25496e-05 1.25585e-05 1.25674e-05 1.25763e-05 1.25852e-05 1.25941e-05 1.2603e-05 1.2612e-05 1.26209e-05 1.26299e-05 1.26388e-05 1.26478e-05 1.26568e-05 1.26657e-05 1.26747e-05 1.26838e-05 1.26928e-05 1.27018e-05 1.27108e-05 1.27199e-05 1.27289e-05 1.2738e-05 1.27471e-05 1.27561e-05 1.27652e-05 1.2774